<PP_INFO>
Generated using Vanderbilt code, version   7  3  6                              
Author: unknown    Generation date:    0    0    0                              
Automatically converted from original format                                    
    0        The Pseudo was generated with a Non-Relativistic Calculation
  1.00000000000E+00    Local Potential cutoff radius
nl pn  l   occ               Rcut            Rcut US             E pseu
2S  2  0  2.00      0.70000000000      1.30000000000     -1.75764489619
2P  2  1  4.00      0.70000000000      1.30000000000     -0.66426052465
3S  3  0  0.00      0.70000000000      1.30000000000     -0.01377405041
</PP_INFO>


<PP_HEADER>
   0                   Version Number
  ox                   Element
   US                  Ultrasoft pseudopotential
    F                  Nonlinear Core Correction
SLA  PW   PBE  PBE     PBE  Exchange-Correlation functional
    6.00000000000      Z valence
  -31.58685312952      Total energy
    0.00000    0.00000 Suggested cutoff for wfc and rho
    1                  Max angular momentum component
  737                  Number of points in mesh
    3    4             Number of Wavefunctions, Number of Projectors
 Wavefunctions         nl  l   occ
                       2S  0  2.00
                       2P  1  4.00
                       3S  0  0.00
</PP_HEADER>


<PP_MESH>
  <PP_R>
  0.00000000000E+00  5.29635113499E-06  1.06832360010E-05  1.61622021457E-05
  2.17348235702E-05  2.74027011807E-05  3.31674632488E-05  3.90307658791E-05
  4.49942934849E-05  5.10597592724E-05  5.72289057325E-05  6.35035051415E-05
  6.98853600706E-05  7.63763039030E-05  8.29782013614E-05  8.96929490432E-05
  9.65224759654E-05  1.03468744119E-04  1.10533749032E-04  1.17719520345E-04
  1.25028122389E-04  1.32461654785E-04  1.40022253043E-04  1.47712089177E-04
  1.55533372328E-04  1.63488349398E-04  1.71579305700E-04  1.79808565607E-04
  1.88178493228E-04  1.96691493080E-04  2.05350010784E-04  2.14156533764E-04
  2.23113591964E-04  2.32223758573E-04  2.41489650766E-04  2.50913930455E-04
  2.60499305052E-04  2.70248528251E-04  2.80164400814E-04  2.90249771379E-04
  3.00507537280E-04  3.10940645372E-04  3.21552092887E-04  3.32344928287E-04
  3.43322252146E-04  3.54487218036E-04  3.65843033437E-04  3.77392960653E-04
  3.89140317755E-04  4.01088479533E-04  4.13240878461E-04  4.25601005689E-04
  4.38172412041E-04  4.50958709041E-04  4.63963569943E-04  4.77190730792E-04
  4.90643991496E-04  5.04327216916E-04  5.18244337978E-04  5.32399352802E-04
  5.46796327850E-04  5.61439399093E-04  5.76332773203E-04  5.91480728758E-04
  6.06887617473E-04  6.22557865448E-04  6.38495974442E-04  6.54706523167E-04
  6.71194168598E-04  6.87963647318E-04  7.05019776872E-04  7.22367457158E-04
  7.40011671827E-04  7.57957489721E-04  7.76210066327E-04  7.94774645257E-04
  8.13656559754E-04  8.32861234228E-04  8.52394185810E-04  8.72261025938E-04
  8.92467461973E-04  9.13019298830E-04  9.33922440657E-04  9.55182892520E-04
  9.76806762136E-04  9.98800261625E-04  1.02116970929E-03  1.04392153145E-03
  1.06706226425E-03  1.09059855559E-03  1.11453716698E-03  1.13888497552E-03
  1.16364897587E-03  1.18883628224E-03  1.21445413047E-03  1.24050988005E-03
  1.26701101631E-03  1.29396515252E-03  1.32138003206E-03  1.34926353070E-03
  1.37762365885E-03  1.40646856380E-03  1.43580653215E-03  1.46564599212E-03
  1.49599551601E-03  1.52686382266E-03  1.55825977993E-03  1.59019240728E-03
  1.62267087832E-03  1.65570452350E-03  1.68930283274E-03  1.72347545819E-03
  1.75823221697E-03  1.79358309404E-03  1.82953824502E-03  1.86610799913E-03
  1.90330286214E-03  1.94113351943E-03  1.97961083901E-03  2.01874587466E-03
  2.05854986914E-03  2.09903425735E-03  2.14021066967E-03  2.18209093530E-03
  2.22468708561E-03  2.26801135767E-03  2.31207619770E-03  2.35689426467E-03
  2.40247843395E-03  2.44884180098E-03  2.49599768506E-03  2.54395963318E-03
  2.59274142386E-03  2.64235707117E-03  2.69282082872E-03  2.74414719379E-03
  2.79635091143E-03  2.84944697877E-03  2.90345064928E-03  2.95837743717E-03
  3.01424312185E-03  3.07106375243E-03  3.12885565239E-03  3.18763542423E-03
  3.24741995424E-03  3.30822641735E-03  3.37007228208E-03  3.43297531556E-03
  3.49695358861E-03  3.56202548094E-03  3.62820968646E-03  3.69552521861E-03
  3.76399141583E-03  3.83362794714E-03  3.90445481777E-03  3.97649237491E-03
  4.04976131354E-03  4.12428268243E-03  4.20007789012E-03  4.27716871110E-03
  4.35557729208E-03  4.43532615832E-03  4.51643822013E-03  4.59893677943E-03
  4.68284553647E-03  4.76818859661E-03  4.85499047726E-03  4.94327611491E-03
  5.03307087233E-03  5.12440054580E-03  5.21729137258E-03  5.31177003841E-03
  5.40786368517E-03  5.50559991872E-03  5.60500681678E-03  5.70611293702E-03
  5.80894732528E-03  5.91353952390E-03  6.01991958018E-03  6.12811805506E-03
  6.23816603186E-03  6.35009512524E-03  6.46393749026E-03  6.57972583163E-03
  6.69749341310E-03  6.81727406702E-03  6.93910220405E-03  7.06301282306E-03
  7.18904152117E-03  7.31722450399E-03  7.44759859600E-03  7.58020125116E-03
  7.71507056366E-03  7.85224527882E-03  7.99176480430E-03  8.13366922135E-03
  8.27799929636E-03  8.42479649258E-03  8.57410298199E-03  8.72596165747E-03
  8.88041614507E-03  9.03751081658E-03  9.19729080225E-03  9.35980200378E-03
  9.52509110751E-03  9.69320559778E-03  9.86419377064E-03  1.00381047477E-02
  1.02149884902E-02  1.03948958134E-02  1.05778784012E-02  1.07639888209E-02
  1.09532805386E-02  1.11458079340E-02  1.13416263165E-02  1.15407919410E-02
  1.17433620239E-02  1.19493947596E-02  1.21589493374E-02  1.23720859583E-02
  1.25888658522E-02  1.28093512959E-02  1.30336056306E-02  1.32616932801E-02
  1.34936797696E-02  1.37296317445E-02  1.39696169890E-02  1.42137044464E-02
  1.44619642382E-02  1.47144676847E-02  1.49712873252E-02  1.52324969390E-02
  1.54981715666E-02  1.57683875312E-02  1.60432224606E-02  1.63227553096E-02
  1.66070663825E-02  1.68962373564E-02  1.71903513045E-02  1.74894927201E-02
  1.77937475407E-02  1.81032031729E-02  1.84179485172E-02  1.87380739939E-02
  1.90636715688E-02  1.93948347799E-02  1.97316587639E-02  2.00742402838E-02
  2.04226777567E-02  2.07770712820E-02  2.11375226699E-02  2.15041354713E-02
  2.18770150068E-02  2.22562683976E-02  2.26420045959E-02  2.30343344161E-02
  2.34333705670E-02  2.38392276841E-02  2.42520223621E-02  2.46718731891E-02
  2.50989007800E-02  2.55332278116E-02  2.59749790577E-02  2.64242814248E-02
  2.68812639888E-02  2.73460580319E-02  2.78187970806E-02  2.82996169435E-02
  2.87886557510E-02  2.92860539943E-02  2.97919545665E-02  3.03065028029E-02
  3.08298465233E-02  3.13621360742E-02  3.19035243721E-02  3.24541669474E-02
  3.30142219890E-02  3.35838503899E-02  3.41632157934E-02  3.47524846399E-02
  3.53518262149E-02  3.59614126977E-02  3.65814192106E-02  3.72120238697E-02
  3.78534078352E-02  3.85057553646E-02  3.91692538645E-02  3.98440939453E-02
  4.05304694755E-02  4.12285776375E-02  4.19386189841E-02  4.26607974967E-02
  4.33953206431E-02  4.41423994375E-02  4.49022485013E-02  4.56750861243E-02
  4.64611343280E-02  4.72606189287E-02  4.80737696029E-02  4.89008199529E-02
  4.97420075745E-02  5.05975741245E-02  5.14677653907E-02  5.23528313620E-02
  5.32530263010E-02  5.41686088161E-02  5.50998419365E-02  5.60469931874E-02
  5.70103346672E-02  5.79901431250E-02  5.89867000411E-02  6.00002917068E-02
  6.10312093074E-02  6.20797490057E-02  6.31462120267E-02  6.42309047447E-02
  6.53341387710E-02  6.64562310432E-02  6.75975039168E-02  6.87582852574E-02
  6.99389085350E-02  7.11397129198E-02  7.23610433798E-02  7.36032507795E-02
  7.48666919810E-02  7.61517299466E-02  7.74587338427E-02  7.87880791465E-02
  8.01401477529E-02  8.15153280852E-02  8.29140152060E-02  8.43366109312E-02
  8.57835239449E-02  8.72551699172E-02  8.87519716236E-02  9.02743590662E-02
  9.18227695974E-02  9.33976480457E-02  9.49994468432E-02  9.66286261556E-02
  9.82856540146E-02  9.99710064523E-02  1.01685167638E-01  1.03428630017E-01
  1.05201894451E-01  1.07005470367E-01  1.08839875896E-01  1.10705638027E-01
  1.12603292758E-01  1.14533385248E-01  1.16496469976E-01  1.18493110897E-01
  1.20523881608E-01  1.22589365511E-01  1.24690155978E-01  1.26826856526E-01
  1.29000080988E-01  1.31210453690E-01  1.33458609628E-01  1.35745194654E-01
  1.38070865660E-01  1.40436290766E-01  1.42842149513E-01  1.45289133057E-01
  1.47777944370E-01  1.50309298440E-01  1.52883922474E-01  1.55502556113E-01
  1.58165951639E-01  1.60874874195E-01  1.63630102002E-01  1.66432426582E-01
  1.69282652990E-01  1.72181600041E-01  1.75130100546E-01  1.78129001552E-01
  1.81179164585E-01  1.84281465899E-01  1.87436796724E-01  1.90646063526E-01
  1.93910188265E-01  1.97230108660E-01  2.00606778462E-01  2.04041167722E-01
  2.07534263072E-01  2.11087068013E-01  2.14700603196E-01  2.18375906719E-01
  2.22114034428E-01  2.25916060212E-01  2.29783076321E-01  2.33716193673E-01
  2.37716542178E-01  2.41785271057E-01  2.45923549178E-01  2.50132565388E-01
  2.54413528856E-01  2.58767669420E-01  2.63196237940E-01  2.67700506659E-01
  2.72281769565E-01  2.76941342767E-01  2.81680564869E-01  2.86500797360E-01
  2.91403424997E-01  2.96389856212E-01  3.01461523510E-01  3.06619883881E-01
  3.11866419224E-01  3.17202636767E-01  3.22630069502E-01  3.28150276624E-01
  3.33764843983E-01  3.39475384535E-01  3.45283538809E-01  3.51190975373E-01
  3.57199391322E-01  3.63310512755E-01  3.69526095281E-01  3.75847924515E-01
  3.82277816597E-01  3.88817618711E-01  3.95469209615E-01  4.02234500182E-01
  4.09115433950E-01  4.16113987677E-01  4.23232171914E-01  4.30472031575E-01
  4.37835646533E-01  4.45325132213E-01  4.52942640197E-01  4.60690358849E-01
  4.68570513939E-01  4.76585369283E-01  4.84737227393E-01  4.93028430141E-01
  5.01461359428E-01  5.10038437872E-01  5.18762129502E-01  5.27634940466E-01
  5.36659419750E-01  5.45838159912E-01  5.55173797828E-01  5.64669015445E-01
  5.74326540555E-01  5.84149147579E-01  5.94139658362E-01  6.04300942983E-01
  6.14635920584E-01  6.25147560203E-01  6.35838881632E-01  6.46712956279E-01
  6.57772908056E-01  6.69021914274E-01  6.80463206553E-01  6.92100071757E-01
  7.03935852930E-01  7.15973950265E-01  7.28217822073E-01  7.40670985782E-01
  7.53337018944E-01  7.66219560267E-01  7.79322310655E-01  7.92649034274E-01
  8.06203559634E-01  8.19989780688E-01  8.34011657951E-01  8.48273219637E-01
  8.62778562816E-01  8.77531854593E-01  8.92537333304E-01  9.07799309730E-01
  9.23322168344E-01  9.39110368562E-01  9.55168446029E-01  9.71501013919E-01
  9.88112764263E-01  1.00500846930E+00  1.02219298283E+00  1.03967124163E+00
  1.05744826688E+00  1.07552916556E+00  1.09391913198E+00  1.11262344920E+00
  1.13164749062E+00  1.15099672148E+00  1.17067670044E+00  1.19069308118E+00
  1.21105161400E+00  1.23175814753E+00  1.25281863036E+00  1.27423911275E+00
  1.29602574838E+00  1.31818479615E+00  1.34072262192E+00  1.36364570036E+00
  1.38696061684E+00  1.41067406927E+00  1.43479287008E+00  1.45932394813E+00
  1.48427435072E+00  1.50965124562E+00  1.53546192313E+00  1.56171379815E+00
  1.58841441233E+00  1.61557143624E+00  1.64319267158E+00  1.67128605339E+00
  1.69985965236E+00  1.72892167712E+00  1.75848047663E+00  1.78854454257E+00
  1.81912251176E+00  1.85022316866E+00  1.88185544788E+00  1.91402843677E+00
  1.94675137801E+00  1.98003367225E+00  2.01388488087E+00  2.04831472865E+00
  2.08333310664E+00  2.11895007492E+00  2.15517586556E+00  2.19202088554E+00
  2.22949571972E+00  2.26761113389E+00  2.30637807786E+00  2.34580768864E+00
  2.38591129359E+00  2.42670041369E+00  2.46818676688E+00  2.51038227138E+00
  2.55329904913E+00  2.59694942931E+00  2.64134595182E+00  2.68650137092E+00
  2.73242865889E+00  2.77914100975E+00  2.82665184305E+00  2.87497480775E+00
  2.92412378608E+00  2.97411289761E+00  3.02495650323E+00  3.07666920934E+00
  3.12926587198E+00  3.18276160117E+00  3.23717176519E+00  3.29251199502E+00
  3.34879818885E+00  3.40604651661E+00  3.46427342464E+00  3.52349564040E+00
  3.58373017729E+00  3.64499433952E+00  3.70730572710E+00  3.77068224089E+00
  3.83514208773E+00  3.90070378570E+00  3.96738616939E+00  4.03520839537E+00
  4.10418994764E+00  4.17435064329E+00  4.24571063811E+00  4.31829043244E+00
  4.39211087707E+00  4.46719317918E+00  4.54355890845E+00  4.62123000329E+00
  4.70022877710E+00  4.78057792469E+00  4.86230052882E+00  4.94542006682E+00
  5.02996041732E+00  5.11594586712E+00  5.20340111819E+00  5.29235129472E+00
  5.38282195038E+00  5.47483907563E+00  5.56842910522E+00  5.66361892575E+00
  5.76043588341E+00  5.85890779185E+00  5.95906294013E+00  6.06093010089E+00
  6.16453853860E+00  6.26991801796E+00  6.37709881244E+00  6.48611171303E+00
  6.59698803701E+00  6.70975963701E+00  6.82445891012E+00  6.94111880723E+00
  7.05977284247E+00  7.18045510285E+00  7.30320025805E+00  7.42804357036E+00
  7.55502090487E+00  7.68416873970E+00  7.81552417653E+00  7.94912495123E+00
  8.08500944471E+00  8.22321669397E+00  8.36378640327E+00  8.50675895557E+00
  8.65217542412E+00  8.80007758426E+00  8.95050792540E+00  9.10350966329E+00
  9.25912675235E+00  9.41740389837E+00  9.57838657131E+00  9.74212101837E+00
  9.90865427729E+00  1.00780341899E+01  1.02503094156E+01  1.04255294460E+01
  1.06037446182E+01  1.07850061301E+01  1.09693660545E+01  1.11568773546E+01
  1.13475938986E+01  1.15415704758E+01  1.17388628119E+01  1.19395275851E+01
  1.21436224425E+01  1.23512060167E+01  1.25623379424E+01  1.27770788737E+01
  1.29954905016E+01  1.32176355714E+01  1.34435779011E+01  1.36733823996E+01
  1.39071150853E+01  1.41448431051E+01  1.43866347536E+01  1.46325594929E+01
  1.48826879724E+01  1.51370920491E+01  1.53958448085E+01  1.56590205852E+01
  1.59266949846E+01  1.61989449042E+01  1.64758485562E+01  1.67574854897E+01
  1.70439366135E+01  1.73352842195E+01  1.76316120062E+01  1.79330051029E+01
  1.82395500940E+01  1.85513350438E+01  1.88684495222E+01  1.91909846301E+01
  1.95190330255E+01  1.98526889504E+01  2.01920482577E+01  2.05372084387E+01
  2.08882686513E+01  2.12453297483E+01  2.16084943064E+01  2.19778666558E+01
  2.23535529101E+01  2.27356609965E+01  2.31243006874E+01  2.35195836314E+01
  2.39216233857E+01  2.43305354485E+01  2.47464372923E+01  2.51694483977E+01
  2.55996902876E+01  2.60372865621E+01  2.64823629342E+01  2.69350472658E+01
  2.73954696042E+01  2.78637622200E+01  2.83400596445E+01  2.88244987087E+01
  2.93172185826E+01  2.98183608151E+01  3.03280693747E+01  3.08464906907E+01
  3.13737736956E+01  3.19100698676E+01  3.24555332743E+01  3.30103206165E+01
  3.35745912742E+01  3.41485073512E+01  3.47322337226E+01  3.53259380817E+01
  3.59297909882E+01  3.65439659174E+01  3.71686393098E+01  3.78039906221E+01
  3.84502023784E+01  3.91074602228E+01  3.97759529727E+01  4.04558726733E+01
  4.11474146522E+01  4.18507775762E+01  4.25661635077E+01  4.32937779633E+01
  4.40338299725E+01  4.47865321380E+01  4.55521006966E+01  4.63307555812E+01
  4.71227204844E+01  4.79282229223E+01  4.87474943003E+01  4.95807699790E+01
  5.04282893426E+01  5.12902958668E+01  5.21670371896E+01  5.30587651817E+01
  5.39657360193E+01  5.48882102576E+01  5.58264529055E+01  5.67807335021E+01
  5.77513261938E+01  5.87385098129E+01  5.97425679582E+01  6.07637890763E+01
  6.18024665441E+01  6.28588987537E+01  6.39333891975E+01  6.50262465558E+01
  6.61377847856E+01  6.72683232100E+01  6.84181866111E+01  6.95877053222E+01
  7.07772153235E+01  7.19870583381E+01  7.32175819307E+01  7.44691396067E+01
  7.57420909145E+01  7.70368015483E+01  7.83536434535E+01  7.96929949333E+01
  8.10552407574E+01
  </PP_R>
  <PP_RAB>
  5.25159359463E-06  5.34136225794E-06  5.43266539126E-06  5.52552922422E-06
  5.61998043481E-06  5.71604615702E-06  5.81375398868E-06  5.91313199936E-06
  6.01420873844E-06  6.11701324332E-06  6.22157504773E-06  6.32792419025E-06
  6.43609122295E-06  6.54610722011E-06  6.65800378720E-06  6.77181306994E-06
  6.88756776354E-06  7.00530112207E-06  7.12504696806E-06  7.24683970217E-06
  7.37071431309E-06  7.49670638760E-06  7.62485212079E-06  7.75518832645E-06
  7.88775244764E-06  8.02258256748E-06  8.15971742005E-06  8.29919640153E-06
  8.44105958155E-06  8.58534771463E-06  8.73210225199E-06  8.88136535335E-06
  9.03317989911E-06  9.18758950265E-06  9.34463852288E-06  9.50437207692E-06
  9.66683605315E-06  9.83207712431E-06  1.00001427610E-05  1.01710812451E-05
  1.03449416841E-05  1.05217740247E-05  1.07016290673E-05  1.08845584809E-05
  1.10706148174E-05  1.12598515275E-05  1.14523229749E-05  1.16480844532E-05
  1.18471922007E-05  1.20497034172E-05  1.22556762804E-05  1.24651699622E-05
  1.26782446462E-05  1.28949615445E-05  1.31153829157E-05  1.33395720826E-05
  1.35675934505E-05  1.37995125254E-05  1.40353959333E-05  1.42753114387E-05
  1.45193279650E-05  1.47675156132E-05  1.50199456828E-05  1.52766906922E-05
  1.55378243993E-05  1.58034218226E-05  1.60735592631E-05  1.63483143263E-05
  1.66277659438E-05  1.69119943966E-05  1.72010813382E-05  1.74951098176E-05
  1.77941643036E-05  1.80983307086E-05  1.84076964137E-05  1.87223502939E-05
  1.90423827430E-05  1.93678857002E-05  1.96989526762E-05  2.00356787800E-05
  2.03781607467E-05  2.07264969646E-05  2.10807875041E-05  2.14411341458E-05
  2.18076404105E-05  2.21804115883E-05  2.25595547691E-05  2.29451788735E-05
  2.33373946837E-05  2.37363148758E-05  2.41420540519E-05  2.45547287729E-05
  2.49744575924E-05  2.54013610903E-05  2.58355619076E-05  2.62771847820E-05
  2.67263565830E-05  2.71832063491E-05  2.76478653244E-05  2.81204669964E-05
  2.86011471344E-05  2.90900438285E-05  2.95872975293E-05  3.00930510881E-05
  3.06074497982E-05  3.11306414363E-05  3.16627763054E-05  3.22040072773E-05
  3.27544898374E-05  3.33143821285E-05  3.38838449970E-05  3.44630420385E-05
  3.50521396450E-05  3.56513070530E-05  3.62607163916E-05  3.68805427324E-05
  3.75109641394E-05  3.81521617206E-05  3.88043196795E-05  3.94676253686E-05
  4.01422693427E-05  4.08284454140E-05  4.15263507077E-05  4.22361857183E-05
  4.29581543677E-05  4.36924640637E-05  4.44393257590E-05  4.51989540128E-05
  4.59715670513E-05  4.67573868315E-05  4.75566391042E-05  4.83695534790E-05
  4.91963634905E-05  5.00373066653E-05  5.08926245900E-05  5.17625629809E-05
  5.26473717545E-05  5.35473050993E-05  5.44626215486E-05  5.53935840552E-05
  5.63404600666E-05  5.73035216019E-05  5.82830453301E-05  5.92793126494E-05
  6.02926097682E-05  6.13232277870E-05  6.23714627825E-05  6.34376158923E-05
  6.45219934015E-05  6.56249068310E-05  6.67466730262E-05  6.78876142491E-05
  6.90480582698E-05  7.02283384615E-05  7.14287938959E-05  7.26497694405E-05
  7.38916158581E-05  7.51546899071E-05  7.64393544441E-05  7.77459785285E-05
  7.90749375281E-05  8.04266132271E-05  8.18013939358E-05  8.31996746020E-05
  8.46218569247E-05  8.60683494694E-05  8.75395677854E-05  8.90359345253E-05
  9.05578795663E-05  9.21058401337E-05  9.36802609266E-05  9.52815942457E-05
  9.69103001230E-05  9.85668464543E-05  1.00251709133E-04  1.01965372188E-04
  1.03708327921E-04  1.05481077051E-04  1.07284128852E-04  1.09118001307E-04
  1.10983221253E-04  1.12880324531E-04  1.14809856141E-04  1.16772370402E-04
  1.18768431105E-04  1.20798611680E-04  1.22863495358E-04  1.24963675341E-04
  1.27099754970E-04  1.29272347900E-04  1.31482078273E-04  1.33729580903E-04
  1.36015501453E-04  1.38340496625E-04  1.40705234345E-04  1.43110393956E-04
  1.45556666414E-04  1.48044754486E-04  1.50575372950E-04  1.53149248806E-04
  1.55767121477E-04  1.58429743028E-04  1.61137878378E-04  1.63892305523E-04
  1.66693815756E-04  1.69543213896E-04  1.72441318521E-04  1.75388962199E-04
  1.78386991733E-04  1.81436268397E-04  1.84537668191E-04  1.87692082085E-04
  1.90900416283E-04  1.94163592476E-04  1.97482548112E-04  2.00858236663E-04
  2.04291627898E-04  2.07783708165E-04  2.11335480670E-04  2.14947965769E-04
  2.18622201260E-04  2.22359242678E-04  2.26160163604E-04  2.30026055969E-04
  2.33958030368E-04  2.37957216382E-04  2.42024762900E-04  2.46161838449E-04
  2.50369631530E-04  2.54649350962E-04  2.59002226225E-04  2.63429507815E-04
  2.67932467605E-04  2.72512399209E-04  2.77170618351E-04  2.81908463249E-04
  2.86727294993E-04  2.91628497940E-04  2.96613480112E-04  3.01683673597E-04
  3.06840534963E-04  3.12085545677E-04  3.17420212530E-04  3.22846068067E-04
  3.28364671032E-04  3.33977606813E-04  3.39686487898E-04  3.45492954338E-04
  3.51398674217E-04  3.57405344136E-04  3.63514689695E-04  3.69728465989E-04
  3.76048458117E-04  3.82476481690E-04  3.89014383355E-04  3.95664041325E-04
  4.02427365917E-04  4.09306300105E-04  4.16302820072E-04  4.23418935783E-04
  4.30656691561E-04  4.38018166673E-04  4.45505475928E-04  4.53120770285E-04
  4.60866237472E-04  4.68744102610E-04  4.76756628859E-04  4.84906118061E-04
  4.93194911408E-04  5.01625390109E-04  5.10199976078E-04  5.18921132627E-04
  5.27791365176E-04  5.36813221970E-04  5.45989294816E-04  5.55322219821E-04
  5.64814678154E-04  5.74469396814E-04  5.84289149415E-04  5.94276756982E-04
  6.04435088762E-04  6.14767063047E-04  6.25275648012E-04  6.35963862572E-04
  6.46834777243E-04  6.57891515028E-04  6.69137252315E-04  6.80575219787E-04
  6.92208703349E-04  7.04041045077E-04  7.16075644173E-04  7.28315957945E-04
  7.40765502799E-04  7.53427855247E-04  7.66306652938E-04  7.79405595702E-04
  7.92728446612E-04  8.06279033064E-04  8.20061247880E-04  8.34079050424E-04
  8.48336467739E-04  8.62837595705E-04  8.77586600216E-04  8.92587718375E-04
  9.07845259713E-04  9.23363607427E-04  9.39147219637E-04  9.55200630670E-04
  9.71528452360E-04  9.88135375375E-04  1.00502617056E-03  1.02220569032E-03
  1.03967886999E-03  1.05745072928E-03  1.07552637371E-03  1.09391099605E-03
  1.11260987785E-03  1.13162839094E-03  1.15097199896E-03  1.17064625897E-03
  1.19065682300E-03  1.21100943969E-03  1.23170995596E-03  1.25276431867E-03
  1.27417857632E-03  1.29595888082E-03  1.31811148923E-03  1.34064276557E-03
  1.36355918263E-03  1.38686732385E-03  1.41057388522E-03  1.43468567717E-03
  1.45920962656E-03  1.48415277863E-03  1.50952229908E-03  1.53532547607E-03
  1.56156972236E-03  1.58826257742E-03  1.61541170958E-03  1.64302491827E-03
  1.67111013622E-03  1.69967543177E-03  1.72872901119E-03  1.75827922099E-03
  1.78833455040E-03  1.81890363371E-03  1.84999525285E-03  1.88161833981E-03
  1.91378197932E-03  1.94649541136E-03  1.97976803386E-03  2.01360940541E-03
  2.04802924797E-03  2.08303744971E-03  2.11864406780E-03  2.15485933133E-03
  2.19169364425E-03  2.22915758834E-03  2.26726192627E-03  2.30601760467E-03
  2.34543575732E-03  2.38552770827E-03  2.42630497516E-03  2.46777927253E-03
  2.50996251513E-03  2.55286682139E-03  2.59650451688E-03  2.64088813788E-03
  2.68603043494E-03  2.73194437656E-03  2.77864315294E-03  2.82614017973E-03
  2.87444910190E-03  2.92358379768E-03  2.97355838251E-03  3.02438721312E-03
  3.07608489165E-03  3.12866626985E-03  3.18214645332E-03  3.23654080590E-03
  3.29186495401E-03  3.34813479123E-03  3.40536648278E-03  3.46357647023E-03
  3.52278147617E-03  3.58299850907E-03  3.64424486810E-03  3.70653814816E-03
  3.76989624491E-03  3.83433735990E-03  3.89988000581E-03  3.96654301179E-03
  4.03434552881E-03  4.10330703524E-03  4.17344734238E-03  4.24478660017E-03
  4.31734530302E-03  4.39114429563E-03  4.46620477903E-03  4.54254831663E-03
  4.62019684046E-03  4.69917265744E-03  4.77949845579E-03  4.86119731155E-03
  4.94429269524E-03  5.02880847855E-03  5.11476894121E-03  5.20219877802E-03
  5.29112310587E-03  5.38156747101E-03  5.47355785633E-03  5.56712068892E-03
  5.66228284754E-03  5.75907167046E-03  5.85751496323E-03  5.95764100670E-03
  6.05947856515E-03  6.16305689453E-03  6.26840575089E-03  6.37555539893E-03
  6.48453662067E-03  6.59538072429E-03  6.70811955317E-03  6.82278549499E-03
  6.93941149105E-03  7.05803104575E-03  7.17867823620E-03  7.30138772198E-03
  7.42619475518E-03  7.55313519042E-03  7.68224549524E-03  7.81356276053E-03
  7.94712471121E-03  8.08296971704E-03  8.22113680365E-03  8.36166566377E-03
  8.50459666864E-03  8.64997087956E-03  8.79783005973E-03  8.94821668623E-03
  9.10117396223E-03  9.25674582939E-03  9.41497698051E-03  9.57591287232E-03
  9.73959973860E-03  9.90608460341E-03  1.00754152946E-02  1.02476404577E-02
  1.04228095696E-02  1.06009729530E-02  1.07821817907E-02  1.09664881407E-02
  1.11539449505E-02  1.13446060728E-02  1.15385262809E-02  1.17357612844E-02
  1.19363677450E-02  1.21404032930E-02  1.23479265440E-02  1.25589971153E-02
  1.27736756435E-02  1.29920238015E-02  1.32141043166E-02  1.34399809881E-02
  1.36697187060E-02  1.39033834697E-02  1.41410424063E-02  1.43827637908E-02
  1.46286170651E-02  1.48786728579E-02  1.51330030055E-02  1.53916805721E-02
  1.56547798706E-02  1.59223764845E-02  1.61945472890E-02  1.64713704736E-02
  1.67529255642E-02  1.70392934461E-02  1.73305563873E-02  1.76267980619E-02
  1.79281035746E-02  1.82345594845E-02  1.85462538305E-02  1.88632761563E-02
  1.91857175364E-02  1.95136706018E-02  1.98472295672E-02  2.01864902576E-02
  2.05315501360E-02  2.08825083315E-02  2.12394656675E-02  2.16025246910E-02
  2.19717897018E-02  2.23473667826E-02  2.27293638295E-02  2.31178905827E-02
  2.35130586586E-02  2.39149815812E-02  2.43237748153E-02  2.47395557992E-02
  2.51624439787E-02  2.55925608415E-02  2.60300299517E-02  2.64749769859E-02
  2.69275297686E-02  2.73878183096E-02  2.78559748408E-02  2.83321338545E-02
  2.88164321421E-02  2.93090088329E-02  2.98100054349E-02  3.03195658745E-02
  3.08378365388E-02  3.13649663167E-02  3.19011066425E-02  3.24464115389E-02
  3.30010376615E-02  3.35651443437E-02  3.41388936422E-02  3.47224503844E-02
  3.53159822146E-02  3.59196596430E-02  3.65336560947E-02  3.71581479588E-02
  3.77933146397E-02  3.84393386086E-02  3.90964054556E-02  3.97647039434E-02
  4.04444260612E-02  4.11357670799E-02  4.18389256085E-02  4.25541036508E-02
  4.32815066636E-02  4.40213436158E-02  4.47738270481E-02  4.55391731346E-02
  4.63176017442E-02  4.71093365046E-02  4.79146048657E-02  4.87336381656E-02
  4.95666716967E-02  5.04139447734E-02  5.12757008009E-02  5.21521873451E-02
  5.30436562034E-02  5.39503634778E-02  5.48725696476E-02  5.58105396448E-02
  5.67645429301E-02  5.77348535701E-02  5.87217503163E-02  5.97255166851E-02
  6.07464410391E-02  6.17848166701E-02  6.28409418834E-02  6.39151200832E-02
  6.50076598602E-02  6.61188750800E-02  6.72490849730E-02  6.83986142269E-02
  6.95677930791E-02  7.07569574120E-02  7.19664488496E-02  7.31966148554E-02
  7.44478088321E-02  7.57203902237E-02  7.70147246182E-02  7.83311838528E-02
  7.96701461207E-02  8.10319960799E-02  8.24171249635E-02  8.38259306923E-02
  8.52588179889E-02  8.67161984940E-02  8.81984908850E-02  8.97061209956E-02
  9.12395219390E-02  9.27991342314E-02  9.43854059194E-02  9.59987927080E-02
  9.76397580921E-02  9.93087734893E-02  1.01006318375E-01  1.02732880422E-01
  1.04488955638E-01  1.06275048508E-01  1.08091672144E-01  1.09939348425E-01
  1.11818608153E-01  1.13729991204E-01  1.15674046680E-01  1.17651333072E-01
  1.19662418415E-01  1.21707880456E-01  1.23788306815E-01  1.25904295159E-01
  1.28056453371E-01  1.30245399724E-01  1.32471763060E-01  1.34736182970E-01
  1.37039309979E-01  1.39381805729E-01  1.41764343174E-01  1.44187606773E-01
  1.46652292680E-01  1.49159108954E-01  1.51708775753E-01  1.54302025548E-01
  1.56939603328E-01  1.59622266820E-01  1.62350786701E-01  1.65125946820E-01
  1.67948544429E-01  1.70819390405E-01  1.73739309486E-01  1.76709140509E-01
  1.79729736648E-01  1.82801965663E-01  1.85926710145E-01  1.89104867773E-01
  1.92337351570E-01  1.95625090167E-01  1.98969028066E-01  2.02370125917E-01
  2.05829360789E-01  2.09347726453E-01  2.12926233669E-01  2.16565910470E-01
  2.20267802468E-01  2.24032973142E-01  2.27862504154E-01  2.31757495655E-01
  2.35719066599E-01  2.39748355070E-01  2.43846518604E-01  2.48014734524E-01
  2.52254200278E-01  2.56566133782E-01  2.60951773772E-01  2.65412380157E-01
  2.69949234383E-01  2.74563639800E-01  2.79256922037E-01  2.84030429385E-01
  2.88885533178E-01  2.93823628195E-01  2.98846133055E-01  3.03954490626E-01
  3.09150168440E-01  3.14434659116E-01  3.19809480784E-01  3.25276177527E-01
  3.30836319822E-01  3.36491504990E-01  3.42243357656E-01  3.48093530216E-01
  3.54043703311E-01  3.60095586310E-01  3.66250917804E-01  3.72511466099E-01
  3.78879029730E-01  3.85355437975E-01  3.91942551380E-01  3.98642262295E-01
  4.05456495418E-01  4.12387208347E-01  4.19436392141E-01  4.26606071893E-01
  4.33898307315E-01  4.41315193324E-01  4.48858860648E-01  4.56531476438E-01
  4.64335244886E-01  4.72272407865E-01  4.80345245567E-01  4.88556077164E-01
  4.96907261468E-01  5.05401197612E-01  5.14040325740E-01  5.22827127707E-01
  5.31764127791E-01  5.40853893418E-01  5.50099035903E-01  5.59502211196E-01
  5.69066120648E-01  5.78793511784E-01  5.88687179096E-01  5.98749964842E-01
  6.08984759868E-01  6.19394504430E-01  6.29982189048E-01  6.40750855358E-01
  6.51703596990E-01  6.62843560454E-01  6.74173946047E-01  6.85698008768E-01
  6.97419059259E-01  7.09340464749E-01  7.21465650029E-01  7.33798098429E-01
  7.46341352823E-01  7.59099016645E-01  7.72074754926E-01  7.85272295343E-01
  7.98695429296E-01  8.12348012989E-01  8.26233968547E-01  8.40357285136E-01
  8.54722020112E-01  8.69332300184E-01  8.84192322604E-01  8.99306356368E-01
  9.14678743446E-01  9.30313900027E-01  9.46216317789E-01  9.62390565189E-01
  9.78841288776E-01  9.95573214523E-01  1.01259114919E+00  1.02989998170E+00
  1.04750468454E+00  1.06541031521E+00  1.08362201765E+00  1.10214502373E+00
  1.12098465474E+00  1.14014632295E+00  1.15963553314E+00  1.17945788417E+00
  1.19961907064E+00  1.22012488444E+00  1.24098121652E+00  1.26219405849E+00
  1.28376950438E+00  1.30571375241E+00  1.32803310674E+00  1.35073397928E+00
  1.37382289155E+00
  </PP_RAB>
</PP_MESH>


<PP_LOCAL>
 -2.90501404218E+01 -2.90501404218E+01 -2.90501404069E+01 -2.90501403994E+01
 -2.90501403940E+01 -2.90501403848E+01 -2.90501403736E+01 -2.90501403599E+01